 Gaussian 09, Revision D.01,
 Gaussian 09:  AM64L-G09RevD.01 24-Apr-2013

 ----------------------------------
 # opt=z-matrix HF/6-31G* scf=tight
 ----------------------------------

 -------------------
 Title Card Required
 -------------------
 Symbolic Z-matrix:
 Charge = -1 Multiplicity = 1

 SCF Done:  E(RHF) =  -816.503099118     A.U. after   15 cycles
 SCF Done:  E(RHF) =  -816.523747425     A.U. after   13 cycles
 SCF Done:  E(RHF) =  -816.525259209     A.U. after   14 cycles
 SCF Done:  E(RHF) =  -816.526338879     A.U. after   15 cycles
 SCF Done:  E(RHF) =  -816.527186832     A.U. after   13 cycles
 SCF Done:  E(RHF) =  -816.527199263     A.U. after   14 cycles
 SCF Done:  E(RHF) =  -816.529182822     A.U. after   13 cycles
 SCF Done:  E(RHF) =  -816.529257205     A.U. after   13 cycles
 SCF Done:  E(RHF) =  -816.529539216     A.U. after   12 cycles
 SCF Done:  E(RHF) =  -816.529476741     A.U. after   12 cycles
 SCF Done:  E(RHF) =  -816.530336695     A.U. after   11 cycles
 SCF Done:  E(RHF) =  -816.530345579     A.U. after   11 cycles
 SCF Done:  E(RHF) =  -816.530347323     A.U. after   10 cycles
 SCF Done:  E(RHF) =  -816.530347858     A.U. after    9 cycles
 SCF Done:  E(RHF) =  -816.530348101     A.U. after    9 cycles
 SCF Done:  E(RHF) =  -816.530348073     A.U. after    8 cycles
 SCF Done:  E(RHF) =  -816.530348236     A.U. after    7 cycles
 SCF Done:  E(RHF) =  -816.530348291     A.U. after    7 cycles
 SCF Done:  E(RHF) =  -816.530348335     A.U. after    7 cycles
 SCF Done:  E(RHF) =  -816.530348351     A.U. after    8 cycles
 Optimization completed.
    -- Stationary point found.

                         Standard orientation:
 ---------------------------------------------------------------------
 Center     Atomic      Atomic             Coordinates (Angstroms)
 Number     Number       Type             X           Y           Z
 ---------------------------------------------------------------------
      1          6           0        4.667906   -1.844915   -0.248511
      2          1           0        4.878814   -2.284103   -1.217678
      3          1           0        5.357827   -1.028552   -0.071629
      4          1           0        4.823160   -2.614006    0.499589
      5          6           0        3.207862   -1.420974   -0.216726
      6          8           0        2.338669   -2.258151   -0.332964
      7          7           0        2.995108   -0.118652   -0.047487
      8          1           0        3.745802    0.539198   -0.097929
      9          6           0        1.706443    0.546812   -0.133262
     10          1           0        1.225464    0.257989   -1.062442
     11          6           0        0.773638    0.166861    1.042528
     12          1           0        1.142470   -0.747886    1.487520
     13          1           0        0.829007    0.941170    1.798870
     14          6           0       -0.675810   -0.053597    0.655858
     15          6           0       -1.550832    1.003343    0.455718
     16          1           0       -1.170467    2.004085    0.532185
     17          6           0       -2.883670    0.790624    0.120573
     18          1           0       -3.523344    1.640696   -0.025186
     19          6           0       -3.359991   -0.501126   -0.028812
     20          8           0       -4.647127   -0.817055   -0.349917
     21          6           0       -5.553005    0.209696   -0.597971
     22          1           0       -5.236280    0.834370   -1.427911
     23          1           0       -6.492131   -0.263591   -0.852051
     24          1           0       -5.700784    0.837416    0.276237
     25          6           0       -2.495189   -1.571833    0.150204
     26          1           0       -2.872448   -2.570291    0.019360
     27          6           0       -1.174038   -1.344018    0.484860
     28          1           0       -0.507634   -2.180494    0.600909
     29          6           0        1.980039    2.086100   -0.199615
     30          8           0        3.160837    2.413150   -0.358346
     31          8           0        0.981956    2.794894   -0.088335
 ---------------------------------------------------------------------

 The electronic state is 1-A.
 Alpha  occ. eigenvalues --  -20.49076 -20.38945 -20.31815 -20.31213 -15.43712
 Alpha  occ. eigenvalues --  -11.21864 -11.19654 -11.18433 -11.15574 -11.12238
 Alpha  occ. eigenvalues --  -11.11366 -11.11278 -11.11061 -11.10898 -11.10530
 Alpha  occ. eigenvalues --  -11.10404 -11.08724  -1.31705  -1.25397  -1.20610
 Alpha  occ. eigenvalues --   -1.10658  -1.08799  -1.03589  -0.93732  -0.90378
 Alpha  occ. eigenvalues --   -0.89663  -0.86696  -0.82443  -0.74656  -0.71825
 Alpha  occ. eigenvalues --   -0.67577  -0.64283  -0.61463  -0.58523  -0.56733
 Alpha  occ. eigenvalues --   -0.56326  -0.53716  -0.53256  -0.51399  -0.49962
 Alpha  occ. eigenvalues --   -0.49762  -0.48287  -0.47120  -0.46096  -0.44717
 Alpha  occ. eigenvalues --   -0.44361  -0.43251  -0.42246  -0.42056  -0.40866
 Alpha  occ. eigenvalues --   -0.40105  -0.37984  -0.36321  -0.35648  -0.35441
 Alpha  occ. eigenvalues --   -0.34155  -0.28995  -0.25218  -0.22992  -0.22034
 Alpha  occ. eigenvalues --   -0.21690  -0.21341  -0.18422
 Alpha virt. eigenvalues --    0.25871   0.27778   0.32483   0.32912   0.35145
 Alpha virt. eigenvalues --    0.36651   0.38748   0.39536   0.40309   0.40716
 Alpha virt. eigenvalues --    0.40936   0.41742   0.42586   0.44001   0.44531

 Mulliken charges:
               1
     1  C   -0.567351
     2  H    0.176128
     3  H    0.165618
     4  H    0.173969
     5  C    0.759437
     6  O   -0.664629
     7  N   -0.821347
     8  H    0.420085
     9  C   -0.040954
    10  H    0.183132
    11  C   -0.319687
    12  H    0.168981
    13  H    0.173904
    14  C   -0.025909
    15  C   -0.202102
    16  H    0.271002
    17  C   -0.293634
    18  H    0.183086
    19  C    0.416270
    20  O   -0.663984
    21  C   -0.168723
    22  H    0.154454
    23  H    0.164289
    24  H    0.148226
    25  C   -0.258071
    26  H    0.183775
    27  C   -0.210382
    28  H    0.220242
    29  C    0.770652
    30  O   -0.758430
    31  O   -0.738047
 Sum of Mulliken charges =  -1.00000

 Dipole moment (field-independent basis, Debye):
    X=             -6.0813    Y=             -5.4766    Z=              0.9966  Tot=              8.2443
 Quadrupole moment (field-independent basis, Debye-Ang):
   XX=           -118.3515   YY=           -140.9875   ZZ=           -102.8942
   XY=            -23.8288   XZ=              5.2478   YZ=              0.7875

 Normal termination of Gaussian 09 at Wed May 18 23:10:09 2016.
