 Gaussian 09, Revision D.01,
 Gaussian 09:  AM64L-G09RevD.01 24-Apr-2013

 --------------------------------------------
 # HF/6-31G* scf=tight iop(6/33=2) pop=chelpg
 --------------------------------------------

 -------------------
 Title Card Required
 -------------------
 Symbolic Z-matrix:
 Charge =  2 Multiplicity = 1

                         Standard orientation:
 ---------------------------------------------------------------------
 Center     Atomic      Atomic             Coordinates (Angstroms)
 Number     Number       Type             X           Y           Z
 ---------------------------------------------------------------------
      1          7           0       -2.434966    2.234112    0.399967
      2          1           0       -3.298130    2.465154   -0.076259
      3          1           0       -2.693158    1.910485    1.330439
      4          1           0       -1.894061    3.084493    0.474971
      5          6           0       -1.694503    1.109481   -0.280588
      6          1           0       -1.699418    1.317249   -1.341659
      7          6           0       -0.264390    1.067553    0.287748
      8          1           0        0.209040    2.021053    0.079575
      9          1           0       -0.335121    0.965072    1.366142
     10          6           0        0.585477   -0.082760   -0.277758
     11          1           0        0.106439   -1.021807   -0.019612
     12          1           0        0.632493   -0.037813   -1.361376
     13          6           0        2.039849   -0.107469    0.244261
     14          1           0        2.085741    0.330776    1.241094
     15          6           0        2.528347   -1.557448    0.308905
     16          1           0        2.049837   -2.125922    1.092274
     17          1           0        2.383633   -2.050681   -0.641336
     18          7           0        4.009362   -1.570360    0.564476
     19          1           0        4.243534   -1.262152    1.498856
     20          1           0        4.408727   -2.491988    0.443578
     21          1           0        4.455520   -0.934491   -0.087308
     22          8           0        2.963802    0.518360   -0.591732
     23          6           0        2.977272    1.931271   -0.664268
     24          1           0        2.965568    2.368966    0.328352
     25          1           0        3.889859    2.207526   -1.167572
     26          1           0        2.138451    2.297168   -1.242428
     27          6           0       -2.511670   -0.136582    0.110772
     28          8           0       -2.911114   -0.167485    1.246270
     29          7           0       -2.702314   -1.063276   -0.815184
     30          1           0       -2.373662   -0.906068   -1.741925
     31          6           0       -3.465027   -2.288535   -0.556729
     32          1           0       -2.812277   -3.084183   -0.224271
     33          1           0       -4.203520   -2.091762    0.203695
     34          1           0       -3.957695   -2.584470   -1.470395
 ---------------------------------------------------------------------

 SCF Done:  E(RHF) =  -627.729106137     A.U. after   13 cycles

 The electronic state is 1-A.
 Alpha  occ. eigenvalues --  -20.82581 -20.77865 -15.96634 -15.96616 -15.83514
 Alpha  occ. eigenvalues --  -11.60678 -11.57890 -11.56546 -11.56338 -11.51434
 Alpha  occ. eigenvalues --  -11.50551 -11.49945 -11.46357  -1.65646  -1.65226
 Alpha  occ. eigenvalues --   -1.58666  -1.58619  -1.48202  -1.36543  -1.31491
 Alpha  occ. eigenvalues --   -1.23926  -1.18838  -1.17703  -1.12701  -1.08681
 Alpha  occ. eigenvalues --   -1.06273  -1.05093  -1.04036  -1.03680  -1.03189
 Alpha  occ. eigenvalues --   -0.96433  -0.95087  -0.94023  -0.93087  -0.90785
 Alpha  occ. eigenvalues --   -0.88361  -0.87704  -0.87123  -0.84941  -0.84345
 Alpha  occ. eigenvalues --   -0.82295  -0.81730  -0.80286  -0.79200  -0.76902
 Alpha  occ. eigenvalues --   -0.76463  -0.76061  -0.75688  -0.72800  -0.68150
 Alpha  occ. eigenvalues --   -0.67707  -0.62966
 Alpha virt. eigenvalues --   -0.08568  -0.08319  -0.06581  -0.02865  -0.02282
 Alpha virt. eigenvalues --   -0.01618  -0.01419   0.00327   0.01431   0.01797
 Alpha virt. eigenvalues --    0.02404   0.02987   0.03786   0.05180   0.06087

 Mulliken charges:
               1
     1  N   -0.864213
     2  H    0.478342
     3  H    0.497427
     4  H    0.468673
     5  C   -0.151239
     6  H    0.266641
     7  C   -0.354051
     8  H    0.211352
     9  H    0.231483
    10  C   -0.392296
    11  H    0.216238
    12  H    0.225063
    13  C    0.181466
    14  H    0.195166
    15  C   -0.224261
    16  H    0.265896
    17  H    0.268223
    18  N   -0.859087
    19  H    0.465701
    20  H    0.478582
    21  H    0.490856
    22  O   -0.663472
    23  C   -0.201047
    24  H    0.177190
    25  H    0.239288
    26  H    0.172915
    27  C    0.794126
    28  O   -0.607020
    29  N   -0.792621
    30  H    0.411357
    31  C   -0.308988
    32  H    0.209711
    33  H    0.247960
    34  H    0.224641
 Sum of Mulliken charges =   2.00000

 Dipole moment (field-independent basis, Debye):
    X=              6.3552    Y=              1.6817    Z=              0.0179  Tot=              6.5740
 Quadrupole moment (field-independent basis, Debye-Ang):
   XX=             22.6096   YY=            -28.7103   ZZ=            -70.2629
   XY=            -35.7365   XZ=             18.6145   YZ=              1.1692

 ESP charges:
               1
     1  N   -0.546371
     2  H    0.387724
     3  H    0.360599
     4  H    0.385431
     5  C   -0.020437
     6  H    0.102414
     7  C    0.230311
     8  H   -0.007623
     9  H   -0.011742
    10  C   -0.323101
    11  H    0.064970
    12  H    0.098625
    13  C    0.411530
    14  H    0.013759
    15  C   -0.023494
    16  H    0.112649
    17  H    0.122939
    18  N   -0.447489
    19  H    0.352424
    20  H    0.378531
    21  H    0.340838
    22  O   -0.455871
    23  C    0.068161
    24  H    0.041628
    25  H    0.106896
    26  H    0.060484
    27  C    0.709259
    28  O   -0.557702
    29  N   -0.592466
    30  H    0.342869
    31  C    0.052018
    32  H    0.068524
    33  H    0.085053
    34  H    0.088660
 Sum of ESP charges =   2.00000

 Normal termination of Gaussian 09 at Wed May 18 23:24:41 2016.
