 Gaussian 09, Revision D.01,
 Gaussian 09:  AM64L-G09RevD.01 24-Apr-2013

 --------------------------------------------
 # HF/6-31G* scf=tight iop(6/33=2) pop=chelpg
 --------------------------------------------

 -------------------
 Title Card Required
 -------------------
 Symbolic Z-matrix:
 Charge =  0 Multiplicity = 1

                         Standard orientation:
 ---------------------------------------------------------------------
 Center     Atomic      Atomic             Coordinates (Angstroms)
 Number     Number       Type             X           Y           Z
 ---------------------------------------------------------------------
      1          6           0        5.231142   -1.255409    0.169086
      2          1           0        5.738238   -0.421694   -0.306001
      3          1           0        5.359363   -1.157160    1.242111
      4          1           0        5.659819   -2.186776   -0.168389
      5          6           0        3.759816   -1.220990   -0.187782
      6          8           0        3.212285   -2.118961   -0.772794
      7          7           0        3.106557   -0.102876    0.195368
      8          1           0        3.574710    0.629642    0.680989
      9          6           0        1.706573    0.102610   -0.085632
     10          1           0        1.498222   -0.289629   -1.071695
     11          6           0        0.813051   -0.628623    0.945161
     12          1           0        1.192657   -1.640564    1.013485
     13          1           0        0.956429   -0.163194    1.914834
     14          6           0       -0.656460   -0.662002    0.585803
     15          6           0       -1.592428    0.108132    1.250596
     16          1           0       -1.278195    0.748207    2.056985
     17          6           0       -2.942194    0.081898    0.911039
     18          1           0       -3.630374    0.695185    1.459745
     19          6           0       -3.371934   -0.733969   -0.120923
     20          8           0       -4.650228   -0.838682   -0.538197
     21          6           0       -5.654723   -0.118638    0.116941
     22          1           0       -5.494330    0.951445    0.034651
     23          1           0       -6.580714   -0.376287   -0.374674
     24          1           0       -5.719317   -0.392050    1.164841
     25          6           0       -2.443428   -1.520015   -0.802159
     26          1           0       -2.791930   -2.156350   -1.594337
     27          6           0       -1.113459   -1.484206   -0.448690
     28          1           0       -0.413078   -2.110705   -0.974638
     29          6           0        1.462460    1.609490   -0.059006
     30          8           0        2.117630    2.327894    0.653927
     31          7           0        0.491264    2.066164   -0.866867
     32          1           0       -0.098298    1.402595   -1.314703
     33          6           0        0.059838    3.447519   -0.828321
     34          1           0       -0.528815    3.662958    0.057203
     35          1           0        0.922781    4.096287   -0.833592
     36          1           0       -0.538935    3.648283   -1.706492
 ---------------------------------------------------------------------

 SCF Done:  E(RHF) =  -836.287770082     A.U. after   15 cycles

 The electronic state is 1-A.
 Alpha  occ. eigenvalues --  -20.59236 -20.53017 -20.51809 -15.59004 -15.57666
 Alpha  occ. eigenvalues --  -11.35003 -11.34349 -11.30138 -11.28603 -11.27785
 Alpha  occ. eigenvalues --  -11.26026 -11.23981 -11.23762 -11.23521 -11.23257
 Alpha  occ. eigenvalues --  -11.23239 -11.22872 -11.22789  -1.42163  -1.39990
 Alpha  occ. eigenvalues --   -1.38460  -1.23915  -1.23373  -1.16044  -1.07269
 Alpha  occ. eigenvalues --   -1.02825  -1.02126  -0.98710  -0.96789  -0.93768
 Alpha  occ. eigenvalues --   -0.88043  -0.84112  -0.79989  -0.79907  -0.78156
 Alpha  occ. eigenvalues --   -0.72966  -0.72483  -0.68171  -0.66946  -0.66331
 Alpha  occ. eigenvalues --   -0.65684  -0.65057  -0.63428  -0.63049  -0.62211
 Alpha  occ. eigenvalues --   -0.61145  -0.60551  -0.59172  -0.58405  -0.57450
 Alpha  occ. eigenvalues --   -0.56806  -0.55817  -0.55526  -0.54178  -0.53072
 Alpha  occ. eigenvalues --   -0.52326  -0.51609  -0.50468  -0.49351  -0.47996
 Alpha  occ. eigenvalues --   -0.46447  -0.42703  -0.41369  -0.39688  -0.38228
 Alpha  occ. eigenvalues --   -0.34405  -0.30664
 Alpha virt. eigenvalues --    0.13418   0.15168   0.19198   0.21352   0.23050
 Alpha virt. eigenvalues --    0.23544   0.24141   0.25178   0.26245   0.28175
 Alpha virt. eigenvalues --    0.28941   0.30000   0.30339   0.30900   0.31402

 Mulliken charges:
               1
     1  C   -0.582291
     2  H    0.190214
     3  H    0.188012
     4  H    0.213521
     5  C    0.748363
     6  O   -0.622574
     7  N   -0.821098
     8  H    0.416299
     9  C   -0.026153
    10  H    0.220409
    11  C   -0.348090
    12  H    0.218910
    13  H    0.190064
    14  C   -0.022157
    15  C   -0.208781
    16  H    0.208032
    17  C   -0.287832
    18  H    0.209475
    19  C    0.430547
    20  O   -0.651302
    21  C   -0.186199
    22  H    0.159063
    23  H    0.193501
    24  H    0.163302
    25  C   -0.247318
    26  H    0.220912
    27  C   -0.220976
    28  H    0.228816
    29  C    0.778592
    30  O   -0.641359
    31  N   -0.787813
    32  H    0.398872
    33  C   -0.277446
    34  H    0.174908
    35  H    0.206220
    36  H    0.173357
 Sum of Mulliken charges =   0.00000

 Dipole moment (field-independent basis, Debye):
    X=             -2.5633    Y=              2.3724    Z=              0.5642  Tot=              3.5380
 Quadrupole moment (field-independent basis, Debye-Ang):
   XX=            -89.8828   YY=           -116.2507   ZZ=           -106.3104
   XY=             -5.7989   XZ=              0.0026   YZ=             -6.1184

 ESP charges:
               1
     1  C   -0.391993
     2  H    0.104079
     3  H    0.108881
     4  H    0.098220
     5  C    0.921340
     6  O   -0.658936
     7  N   -0.853551
     8  H    0.359379
     9  C    0.296900
    10  H   -0.011367
    11  C   -0.032962
    12  H    0.044770
    13  H    0.017687
    14  C   -0.022145
    15  C   -0.122158
    16  H    0.133818
    17  C   -0.304674
    18  H    0.148549
    19  C    0.463097
    20  O   -0.439834
    21  C    0.159377
    22  H    0.014816
    23  H    0.057546
    24  H    0.013555
    25  C   -0.300153
    26  H    0.147591
    27  C   -0.101517
    28  H    0.149084
    29  C    0.718222
    30  O   -0.603966
    31  N   -0.622965
    32  H    0.301860
    33  C    0.045236
    34  H    0.036411
    35  H    0.065135
    36  H    0.060665
 Sum of ESP charges =   0.00000

 Normal termination of Gaussian 09 at Mon May 16 02:02:34 2016.
