 Gaussian 09, Revision D.01,
 Gaussian 09:  AM64L-G09RevD.01 24-Apr-2013

 ----------------------------------
 # opt=z-matrix HF/6-31G* scf=tight
 ----------------------------------

 -------------------
 Title Card Required
 -------------------
 Symbolic Z-matrix:
 Charge =  1 Multiplicity = 1

 SCF Done:  E(RHF) =  -684.853891459     A.U. after   15 cycles
 SCF Done:  E(RHF) =  -684.866605968     A.U. after   13 cycles
 SCF Done:  E(RHF) =  -684.866875185     A.U. after   13 cycles
 SCF Done:  E(RHF) =  -684.867087600     A.U. after   12 cycles
 SCF Done:  E(RHF) =  -684.865033289     A.U. after   14 cycles
 SCF Done:  E(RHF) =  -684.867264754     A.U. after   13 cycles
 SCF Done:  E(RHF) =  -684.867472666     A.U. after   12 cycles
 SCF Done:  E(RHF) =  -684.867444819     A.U. after   12 cycles
 SCF Done:  E(RHF) =  -684.867544988     A.U. after   10 cycles
 SCF Done:  E(RHF) =  -684.867529664     A.U. after   11 cycles
 SCF Done:  E(RHF) =  -684.867571744     A.U. after    8 cycles
 SCF Done:  E(RHF) =  -684.867571965     A.U. after    8 cycles
 SCF Done:  E(RHF) =  -684.867572600     A.U. after   10 cycles
 SCF Done:  E(RHF) =  -684.867574597     A.U. after    9 cycles
 SCF Done:  E(RHF) =  -684.867576172     A.U. after    9 cycles
 SCF Done:  E(RHF) =  -684.867577218     A.U. after    9 cycles
 SCF Done:  E(RHF) =  -684.867577395     A.U. after    9 cycles
 SCF Done:  E(RHF) =  -684.867577659     A.U. after    8 cycles
 SCF Done:  E(RHF) =  -684.867577374     A.U. after    9 cycles
 SCF Done:  E(RHF) =  -684.867577745     A.U. after    7 cycles
 Optimization completed.
    -- Stationary point found.

                         Standard orientation:
 ---------------------------------------------------------------------
 Center     Atomic      Atomic             Coordinates (Angstroms)
 Number     Number       Type             X           Y           Z
 ---------------------------------------------------------------------
      1          7           0        3.599150   -1.586965   -0.009069
      2          1           0        3.513532   -2.567669   -0.230091
      3          1           0        4.321710   -1.180147   -0.586531
      4          1           0        3.889233   -1.457044    0.948826
      5          6           0        2.261354   -0.875126   -0.283267
      6          1           0        1.959329   -1.101291   -1.295839
      7          6           0        1.220513   -1.406910    0.721115
      8          1           0        1.279876   -2.492898    0.719802
      9          1           0        1.492975   -1.076769    1.718423
     10          6           0       -0.197151   -0.981696    0.399847
     11          6           0       -0.881837   -0.093359    1.210042
     12          1           0       -0.404248    0.316258    2.083199
     13          6           0       -2.189467    0.286210    0.932596
     14          1           0       -2.684345    0.971912    1.591465
     15          6           0       -2.835039   -0.233977   -0.179840
     16          8           0       -4.083767    0.057454   -0.545269
     17          6           0       -4.877826    0.911709    0.242926
     18          1           0       -4.446557    1.904526    0.298318
     19          1           0       -5.834845    0.964801   -0.250234
     20          1           0       -5.008204    0.510964    1.241158
     21          6           0       -2.155624   -1.135944   -1.004922
     22          1           0       -2.671516   -1.540323   -1.855013
     23          6           0       -0.865052   -1.503656   -0.712717
     24          1           0       -0.376965   -2.221253   -1.351557
     25          6           0        2.618632    0.614007   -0.146204
     26          8           0        3.727223    0.884703    0.244848
     27          7           0        1.691183    1.491785   -0.497276
     28          1           0        0.776211    1.170475   -0.722687
     29          6           0        1.918055    2.929205   -0.388302
     30          1           0        1.860706    3.256614    0.641557
     31          1           0        2.892683    3.173340   -0.781875
     32          1           0        1.161094    3.434733   -0.968786
 ---------------------------------------------------------------------

 The electronic state is 1-A.
 Alpha  occ. eigenvalues --  -20.68822 -20.68079 -15.87115 -15.72984 -11.50753
 Alpha  occ. eigenvalues --  -11.47779 -11.41198 -11.40367 -11.37479 -11.36884
 Alpha  occ. eigenvalues --  -11.36261 -11.35915 -11.35887 -11.33969 -11.33813
 Alpha  occ. eigenvalues --   -1.55709  -1.52045  -1.48476  -1.38204  -1.28328
 Alpha  occ. eigenvalues --   -1.22484  -1.14553  -1.13769  -1.09263  -1.05979
 Alpha  occ. eigenvalues --   -1.02474  -0.96979  -0.95530  -0.94331  -0.93686
 Alpha  occ. eigenvalues --   -0.90616  -0.85367  -0.84177  -0.82705  -0.79199
 Alpha  occ. eigenvalues --   -0.77783  -0.76967  -0.75973  -0.75313  -0.74034
 Alpha  occ. eigenvalues --   -0.73230  -0.71594  -0.70518  -0.70393  -0.67581
 Alpha  occ. eigenvalues --   -0.67216  -0.66540  -0.63761  -0.63097  -0.62250
 Alpha  occ. eigenvalues --   -0.58423  -0.58196  -0.57110  -0.53186  -0.45789
 Alpha  occ. eigenvalues --   -0.42036
 Alpha virt. eigenvalues --    0.01038   0.02105   0.02754   0.03928   0.08090
 Alpha virt. eigenvalues --    0.08933   0.11027   0.12250   0.12600   0.13804
 Alpha virt. eigenvalues --    0.15624   0.16642   0.17302   0.18605   0.19941

 Mulliken charges:
               1
     1  N   -0.845989
     2  H    0.456098
     3  H    0.476967
     4  H    0.472371
     5  C   -0.166356
     6  H    0.270743
     7  C   -0.360953
     8  H    0.213073
     9  H    0.223040
    10  C   -0.041893
    11  C   -0.205191
    12  H    0.222831
    13  C   -0.287361
    14  H    0.238180
    15  C    0.452938
    16  O   -0.639657
    17  C   -0.202973
    18  H    0.170477
    19  H    0.218288
    20  H    0.177728
    21  C   -0.241357
    22  H    0.248867
    23  C   -0.207606
    24  H    0.206139
    25  C    0.803683
    26  O   -0.626616
    27  N   -0.792814
    28  H    0.426712
    29  C   -0.294275
    30  H    0.205464
    31  H    0.224207
    32  H    0.205234
 Sum of Mulliken charges =   1.00000

 Dipole moment (field-independent basis, Debye):
    X=              7.8192    Y=             -4.1576    Z=             -0.2630  Tot=              8.8597
 Quadrupole moment (field-independent basis, Debye-Ang):
   XX=            -39.2234   YY=            -65.8856   ZZ=            -82.1450
   XY=            -30.5154   XZ=             -7.0278   YZ=              2.1256

 Normal termination of Gaussian 09 at Wed May 18 22:59:01 2016.
