 Gaussian 09, Revision D.01,
 Gaussian 09:  AM64L-G09RevD.01 24-Apr-2013

 --------------------------------------------
 # HF/6-31G* scf=tight iop(6/33=2) pop=chelpg
 --------------------------------------------

 -------------------
 Title Card Required
 -------------------
 Symbolic Z-matrix:
 Charge =  0 Multiplicity = 1

                         Standard orientation:
 ---------------------------------------------------------------------
 Center     Atomic      Atomic             Coordinates (Angstroms)
 Number     Number       Type             X           Y           Z
 ---------------------------------------------------------------------
      1          6           0       -4.532244    0.464923    1.024302
      2          1           0       -5.334181   -0.201677    0.726950
      3          1           0       -4.197900    0.187732    2.016919
      4          1           0       -4.930713    1.471105    1.045025
      5          6           0       -3.438207    0.396393   -0.021667
      6          8           0       -3.603976    0.846469   -1.126803
      7          7           0       -2.299872   -0.209650    0.359991
      8          1           0       -2.179991   -0.533857    1.293057
      9          6           0       -1.172492   -0.406539   -0.524013
     10          1           0       -1.533443   -0.694465   -1.498905
     11          6           0       -0.322440    0.887560   -0.650553
     12          1           0       -0.834005    1.540647   -1.346613
     13          1           0       -0.342415    1.385375    0.313705
     14          6           0        1.143368    0.693076   -1.097860
     15          1           0        1.204578   -0.144072   -1.781180
     16          1           0        1.467715    1.563172   -1.657386
     17          6           0        2.160544    0.524143    0.063575
     18          1           0        1.628652    0.401487    1.003099
     19          6           0        3.140090   -0.650580   -0.083218
     20          1           0        3.481827   -0.754647   -1.103448
     21          1           0        3.991603   -0.457833    0.551969
     22          7           0        2.547965   -1.953389    0.328222
     23          1           0        1.701378   -2.233306   -0.273458
     24          1           0        3.234604   -2.687922    0.320906
     25          1           0        2.127340   -1.904937    1.246312
     26          8           0        3.019330    1.630948    0.166126
     27          6           0        2.445139    2.803442    0.665655
     28          1           0        2.007756    2.637312    1.647311
     29          1           0        3.238367    3.532532    0.751307
     30          1           0        1.679377    3.196376    0.004902
     31          6           0       -0.286714   -1.516403    0.023044
     32          8           0        0.304207   -2.213178   -0.836681
     33          8           0       -0.090744   -1.556467    1.238163
 ---------------------------------------------------------------------

 SCF Done:  E(RHF) =  -759.635133175     A.U. after   14 cycles

 The electronic state is 1-A.
 Alpha  occ. eigenvalues --  -20.57762 -20.49665 -20.49618 -20.49394 -15.67904
 Alpha  occ. eigenvalues --  -15.56006 -11.32649 -11.32307 -11.30915 -11.30563
 Alpha  occ. eigenvalues --  -11.28071 -11.24422 -11.22519 -11.21733 -11.21604
 Alpha  occ. eigenvalues --   -1.40303  -1.38998  -1.36521  -1.31420  -1.27423
 Alpha  occ. eigenvalues --   -1.21367  -1.08473  -1.03505  -0.99219  -0.94555
 Alpha  occ. eigenvalues --   -0.93540  -0.85882  -0.82578  -0.78140  -0.77119
 Alpha  occ. eigenvalues --   -0.76418  -0.72546  -0.69985  -0.68057  -0.66040
 Alpha  occ. eigenvalues --   -0.65618  -0.64430  -0.63213  -0.61984  -0.61502
 Alpha  occ. eigenvalues --   -0.60306  -0.58737  -0.58506  -0.57091  -0.55215
 Alpha  occ. eigenvalues --   -0.54804  -0.54008  -0.52913  -0.52032  -0.50122
 Alpha  occ. eigenvalues --   -0.48612  -0.48220  -0.46763  -0.43006  -0.41309
 Alpha  occ. eigenvalues --   -0.39675  -0.39458  -0.39270  -0.35612
 Alpha virt. eigenvalues --    0.16974   0.21190   0.22482   0.23053   0.24228
 Alpha virt. eigenvalues --    0.25309   0.25895   0.26791   0.27975   0.28132
 Alpha virt. eigenvalues --    0.29143   0.29810   0.30685   0.31850   0.32239

 Mulliken charges:
               1
     1  C   -0.573285
     2  H    0.201252
     3  H    0.165915
     4  H    0.199583
     5  C    0.756475
     6  O   -0.628425
     7  N   -0.828878
     8  H    0.406538
     9  C    0.015340
    10  H    0.223321
    11  C   -0.341588
    12  H    0.208200
    13  H    0.164887
    14  C   -0.413128
    15  H    0.213726
    16  H    0.193527
    17  C    0.180679
    18  H    0.192830
    19  C   -0.187213
    20  H    0.219448
    21  H    0.221130
    22  N   -0.916460
    23  H    0.530905
    24  H    0.417976
    25  H    0.455090
    26  O   -0.644621
    27  C   -0.172757
    28  H    0.150067
    29  H    0.182508
    30  H    0.159790
    31  C    0.763149
    32  O   -0.784300
    33  O   -0.731680
 Sum of Mulliken charges =   0.00000

 Dipole moment (field-independent basis, Debye):
    X=              7.3561    Y=             -0.2810    Z=              3.4702  Tot=              8.1383
 Quadrupole moment (field-independent basis, Debye-Ang):
   XX=            -79.6062   YY=            -88.3730   ZZ=            -95.1427
   XY=             -9.1257   XZ=             -7.9941   YZ=              1.2943

 ESP charges:
               1
     1  C   -0.465863
     2  H    0.125227
     3  H    0.113766
     4  H    0.119651
     5  C    0.919830
     6  O   -0.677148
     7  N   -0.801676
     8  H    0.351980
     9  C    0.209083
    10  H    0.036208
    11  C    0.007684
    12  H    0.044807
    13  H   -0.023396
    14  C   -0.157065
    15  H    0.022481
    16  H    0.048928
    17  C    0.493940
    18  H    0.009964
    19  C    0.001199
    20  H    0.066872
    21  H    0.044143
    22  N   -0.314355
    23  H    0.324902
    24  H    0.281293
    25  H    0.260162
    26  O   -0.569765
    27  C    0.198728
    28  H   -0.006540
    29  H    0.049833
    30  H    0.004717
    31  C    0.866544
    32  O   -0.817844
    33  O   -0.768292
 Sum of ESP charges =   0.00000

 Normal termination of Gaussian 09 at Thu May 19 00:28:06 2016.
