 Gaussian 09, Revision D.01,
 Gaussian 09:  AM64L-G09RevD.01 24-Apr-2013

 ----------------------------------
 # opt=z-matrix HF/6-31G* scf=tight
 ----------------------------------

 -------------------
 Title Card Required
 -------------------
 Symbolic Z-matrix:
 Charge =  0 Multiplicity = 1

 SCF Done:  E(RHF) =  -759.538814463     A.U. after   14 cycles
 SCF Done:  E(RHF) =  -759.561806208     A.U. after   13 cycles
 SCF Done:  E(RHF) =  -759.565915578     A.U. after   14 cycles
 SCF Done:  E(RHF) =  -759.571538176     A.U. after   13 cycles
 SCF Done:  E(RHF) =  -759.571648635     A.U. after   13 cycles
 SCF Done:  E(RHF) =  -759.574046683     A.U. after   13 cycles
 SCF Done:  E(RHF) =  -759.574807261     A.U. after   13 cycles
 SCF Done:  E(RHF) =  -759.575660437     A.U. after   15 cycles
 SCF Done:  E(RHF) =  -759.584150473     A.U. after   15 cycles
 SCF Done:  E(RHF) =  -759.587536280     A.U. after   14 cycles
 SCF Done:  E(RHF) =  -759.635103037     A.U. after   11 cycles
 SCF Done:  E(RHF) =  -759.635123797     A.U. after   10 cycles
 SCF Done:  E(RHF) =  -759.635109472     A.U. after   12 cycles
 SCF Done:  E(RHF) =  -759.635128863     A.U. after    9 cycles
 SCF Done:  E(RHF) =  -759.635130964     A.U. after   10 cycles
 SCF Done:  E(RHF) =  -759.635127967     A.U. after   10 cycles
 SCF Done:  E(RHF) =  -759.635132096     A.U. after    9 cycles
 SCF Done:  E(RHF) =  -759.635132790     A.U. after    9 cycles
 SCF Done:  E(RHF) =  -759.635129928     A.U. after   10 cycles
 SCF Done:  E(RHF) =  -759.635133175     A.U. after    8 cycles
 Optimization completed.
    -- Stationary point found.

                         Standard orientation:
 ---------------------------------------------------------------------
 Center     Atomic      Atomic             Coordinates (Angstroms)
 Number     Number       Type             X           Y           Z
 ---------------------------------------------------------------------
      1          6           0        4.532247   -0.464922    1.024305
      2          1           0        5.334183    0.201680    0.726955
      3          1           0        4.197903   -0.187735    2.016923
      4          1           0        4.930717   -1.471104    1.045024
      5          6           0        3.438210   -0.396389   -0.021664
      6          8           0        3.603980   -0.846460   -1.126802
      7          7           0        2.299875    0.209652    0.359996
      8          1           0        2.179993    0.533855    1.293063
      9          6           0        1.172495    0.406543   -0.524008
     10          1           0        1.533445    0.694473   -1.498898
     11          6           0        0.322444   -0.887557   -0.650553
     12          1           0        0.834010   -1.540640   -1.346615
     13          1           0        0.342419   -1.385375    0.313703
     14          6           0       -1.143364   -0.693072   -1.097859
     15          1           0       -1.204575    0.144078   -1.781176
     16          1           0       -1.467710   -1.563166   -1.657389
     17          6           0       -2.160541   -0.524145    0.063576
     18          1           0       -1.628649   -0.401492    1.003101
     19          6           0       -3.140088    0.650578   -0.083213
     20          1           0       -3.481825    0.754648   -1.103442
     21          1           0       -3.991601    0.457828    0.551974
     22          7           0       -2.547964    1.953386    0.328233
     23          1           0       -1.701377    2.233306   -0.273446
     24          1           0       -3.234604    2.687918    0.320919
     25          1           0       -2.127339    1.904931    1.246323
     26          8           0       -3.019326   -1.630951    0.166123
     27          6           0       -2.445134   -2.803446    0.665647
     28          1           0       -2.007751   -2.637320    1.647304
     29          1           0       -3.238361   -3.532537    0.751296
     30          1           0       -1.679371   -3.196377    0.004893
     31          6           0        0.286703    1.516402    0.023038
     32          8           0       -0.304215    2.213170   -0.836694
     33          8           0        0.090722    1.556468    1.238156
 ---------------------------------------------------------------------

 The electronic state is 1-A.
 Alpha  occ. eigenvalues --  -20.57762 -20.49665 -20.49618 -20.49394 -15.67904
 Alpha  occ. eigenvalues --  -15.56006 -11.32649 -11.32307 -11.30915 -11.30563
 Alpha  occ. eigenvalues --  -11.28071 -11.24422 -11.22519 -11.21733 -11.21604
 Alpha  occ. eigenvalues --   -1.40303  -1.38998  -1.36521  -1.31420  -1.27423
 Alpha  occ. eigenvalues --   -1.21367  -1.08473  -1.03505  -0.99219  -0.94555
 Alpha  occ. eigenvalues --   -0.93540  -0.85882  -0.82578  -0.78140  -0.77119
 Alpha  occ. eigenvalues --   -0.76418  -0.72546  -0.69985  -0.68057  -0.66040
 Alpha  occ. eigenvalues --   -0.65618  -0.64430  -0.63213  -0.61984  -0.61502
 Alpha  occ. eigenvalues --   -0.60306  -0.58737  -0.58506  -0.57091  -0.55215
 Alpha  occ. eigenvalues --   -0.54804  -0.54008  -0.52913  -0.52032  -0.50122
 Alpha  occ. eigenvalues --   -0.48612  -0.48220  -0.46763  -0.43006  -0.41309
 Alpha  occ. eigenvalues --   -0.39675  -0.39458  -0.39270  -0.35612
 Alpha virt. eigenvalues --    0.16974   0.21190   0.22482   0.23053   0.24228
 Alpha virt. eigenvalues --    0.25309   0.25895   0.26791   0.27975   0.28132
 Alpha virt. eigenvalues --    0.29143   0.29810   0.30685   0.31850   0.32239

 Mulliken charges:
               1
     1  C   -0.573285
     2  H    0.201252
     3  H    0.165915
     4  H    0.199583
     5  C    0.756475
     6  O   -0.628424
     7  N   -0.828878
     8  H    0.406537
     9  C    0.015341
    10  H    0.223322
    11  C   -0.341589
    12  H    0.208200
    13  H    0.164887
    14  C   -0.413129
    15  H    0.213728
    16  H    0.193527
    17  C    0.180679
    18  H    0.192830
    19  C   -0.187213
    20  H    0.219448
    21  H    0.221130
    22  N   -0.916461
    23  H    0.530905
    24  H    0.417975
    25  H    0.455091
    26  O   -0.644621
    27  C   -0.172757
    28  H    0.150067
    29  H    0.182508
    30  H    0.159789
    31  C    0.763148
    32  O   -0.784298
    33  O   -0.731681
 Sum of Mulliken charges =   0.00000

 Dipole moment (field-independent basis, Debye):
    X=             -7.3560    Y=              0.2810    Z=              3.4702  Tot=              8.1383
 Quadrupole moment (field-independent basis, Debye-Ang):
   XX=            -79.6062   YY=            -88.3730   ZZ=            -95.1427
   XY=             -9.1256   XZ=              7.9941   YZ=             -1.2941

 Normal termination of Gaussian 09 at Thu May 19 00:10:24 2016.
