 Gaussian 09, Revision D.01,
 Gaussian 09:  AM64L-G09RevD.01 24-Apr-2013

 ----------------------------------
 # opt=z-matrix HF/6-31G* scf=tight
 ----------------------------------

 -------------------
 Title Card Required
 -------------------
 Symbolic Z-matrix:
 Charge =  1 Multiplicity = 1

 SCF Done:  E(RHF) =  -779.138674781     A.U. after   14 cycles
 SCF Done:  E(RHF) =  -779.195134850     A.U. after   14 cycles
 SCF Done:  E(RHF) =  -779.210132212     A.U. after   13 cycles
 SCF Done:  E(RHF) =  -779.217789736     A.U. after   13 cycles
 SCF Done:  E(RHF) =  -779.223341680     A.U. after   14 cycles
 SCF Done:  E(RHF) =  -779.227558750     A.U. after   13 cycles
 SCF Done:  E(RHF) =  -779.214665951     A.U. after   15 cycles
 SCF Done:  E(RHF) =  -779.219070624     A.U. after   13 cycles
 SCF Done:  E(RHF) =  -779.229245216     A.U. after   11 cycles
 SCF Done:  E(RHF) =  -779.231604360     A.U. after   13 cycles
 SCF Done:  E(RHF) =  -779.243049598     A.U. after   10 cycles
 SCF Done:  E(RHF) =  -779.243060336     A.U. after    9 cycles
 SCF Done:  E(RHF) =  -779.243042569     A.U. after   11 cycles
 SCF Done:  E(RHF) =  -779.243063135     A.U. after    9 cycles
 SCF Done:  E(RHF) =  -779.243065349     A.U. after    9 cycles
 SCF Done:  E(RHF) =  -779.243067156     A.U. after    9 cycles
 SCF Done:  E(RHF) =  -779.243067799     A.U. after    9 cycles
 SCF Done:  E(RHF) =  -779.243068158     A.U. after    9 cycles
 SCF Done:  E(RHF) =  -779.243068461     A.U. after    8 cycles
 SCF Done:  E(RHF) =  -779.243068675     A.U. after    9 cycles
 Optimization completed.
    -- Stationary point found.

                         Standard orientation:
 ---------------------------------------------------------------------
 Center     Atomic      Atomic             Coordinates (Angstroms)
 Number     Number       Type             X           Y           Z
 ---------------------------------------------------------------------
      1          6           0        3.141908   -3.115017    0.599316
      2          1           0        4.148442   -2.783979    0.366642
      3          1           0        3.028164   -3.105206    1.678709
      4          1           0        2.987970   -4.114760    0.223920
      5          6           0        2.143034   -2.178299   -0.040202
      6          8           0        1.332974   -2.533375   -0.851419
      7          7           0        2.232864   -0.872118    0.351831
      8          1           0        2.757749   -0.660639    1.172013
      9          6           0        1.260917    0.097740   -0.115434
     10          1           0        1.133670   -0.094749   -1.174450
     11          6           0       -0.105861   -0.052335    0.568767
     12          1           0       -0.278201   -1.111514    0.699418
     13          1           0       -0.072447    0.400147    1.554468
     14          6           0       -1.247376    0.568712   -0.243872
     15          1           0       -1.123348    1.644177   -0.231456
     16          1           0       -1.193936    0.254923   -1.282502
     17          6           0       -2.649033    0.204716    0.263494
     18          1           0       -2.620546   -0.005767    1.333305
     19          6           0       -3.597493    1.372165    0.007473
     20          1           0       -3.401268    2.221711    0.643415
     21          1           0       -3.561329    1.670994   -1.029619
     22          7           0       -5.008322    0.905060    0.261842
     23          1           0       -5.186754    0.762033    1.245481
     24          1           0       -5.702563    1.548888   -0.088001
     25          1           0       -5.113339    0.008325   -0.201261
     26          8           0       -3.263524   -0.866092   -0.403317
     27          6           0       -2.662704   -2.144209   -0.306218
     28          1           0       -2.532215   -2.425867    0.733534
     29          1           0       -3.339516   -2.836696   -0.782472
     30          1           0       -1.708999   -2.171087   -0.813845
     31          6           0        1.807292    1.524104    0.006398
     32          8           0        1.081269    2.438219    0.303049
     33          7           0        3.112732    1.679689   -0.257271
     34          1           0        3.622829    0.897780   -0.598698
     35          6           0        3.728394    2.993587   -0.305305
     36          1           0        3.406893    3.552703   -1.176050
     37          1           0        3.466073    3.553378    0.580067
     38          1           0        4.801541    2.869791   -0.340447
 ---------------------------------------------------------------------

 The electronic state is 1-A.
 Alpha  occ. eigenvalues --  -20.70895 -20.62008 -20.61580 -15.86660 -15.68151
 Alpha  occ. eigenvalues --  -15.67245 -11.45307 -11.44123 -11.43763 -11.43725
 Alpha  occ. eigenvalues --  -11.38746 -11.37419 -11.34131 -11.33402 -11.33044
 Alpha  occ. eigenvalues --  -11.31477  -1.53458  -1.48896  -1.48458  -1.48255
 Alpha  occ. eigenvalues --   -1.34040  -1.31341  -1.22116  -1.16457  -1.10724
 Alpha  occ. eigenvalues --   -1.07255  -1.06285  -1.03084  -0.97419  -0.95419
 Alpha  occ. eigenvalues --   -0.95021  -0.92297  -0.88825  -0.87675  -0.83221
 Alpha  occ. eigenvalues --   -0.83068  -0.81734  -0.77856  -0.76704  -0.75839
 Alpha  occ. eigenvalues --   -0.74883  -0.73757  -0.73034  -0.71497  -0.71051
 Alpha  occ. eigenvalues --   -0.70484  -0.68364  -0.67575  -0.66713  -0.66346
 Alpha  occ. eigenvalues --   -0.64415  -0.63794  -0.63254  -0.62634  -0.61854
 Alpha  occ. eigenvalues --   -0.59828  -0.59622  -0.58709  -0.55886  -0.51612
 Alpha  occ. eigenvalues --   -0.50986  -0.48848  -0.47389
 Alpha virt. eigenvalues --    0.00984   0.07451   0.09508   0.10199   0.11133
 Alpha virt. eigenvalues --    0.11286   0.12821   0.13765   0.14537   0.15249
 Alpha virt. eigenvalues --    0.16997   0.17192   0.18268   0.18758   0.19795

 Mulliken charges:
               1
     1  C   -0.584336
     2  H    0.203953
     3  H    0.192046
     4  H    0.231605
     5  C    0.741301
     6  O   -0.604012
     7  N   -0.834480
     8  H    0.394962
     9  C   -0.039023
    10  H    0.240148
    11  C   -0.324243
    12  H    0.196516
    13  H    0.187260
    14  C   -0.399857
    15  H    0.236608
    16  H    0.204037
    17  C    0.187902
    18  H    0.179165
    19  C   -0.225408
    20  H    0.259061
    21  H    0.260158
    22  N   -0.864412
    23  H    0.455022
    24  H    0.462914
    25  H    0.487851
    26  O   -0.686176
    27  C   -0.204220
    28  H    0.165274
    29  H    0.204995
    30  H    0.218560
    31  C    0.767781
    32  O   -0.629129
    33  N   -0.788909
    34  H    0.403940
    35  C   -0.280665
    36  H    0.189558
    37  H    0.208237
    38  H    0.186019
 Sum of Mulliken charges =   1.00000

 Dipole moment (field-independent basis, Debye):
    X=            -13.4059    Y=              2.3762    Z=              2.8954  Tot=             13.9193
 Quadrupole moment (field-independent basis, Debye-Ang):
   XX=             26.2117   YY=            -90.7240   ZZ=            -92.5522
   XY=            -17.8151   XZ=             -4.6956   YZ=             -7.6935

 Normal termination of Gaussian 09 at Mon May 16 01:49:00 2016.
